<VTKFile type="UnstructuredGrid" version="0.1" byte_order="LittleEndian">
<UnstructuredGrid>
<Piece NumberOfPoints="45" NumberOfCells="68">
<Points>
<DataArray type="Float64" NumberOfComponents="3" format="ascii">
0 0 0 0 1 0 1 1 0 1 0 0 0 0.8 0 0 0.6 0 0 0.4 0 0 0.2 0 1 0.8 0 1 0.6 0 1 0.4 0 1 0.2 0 0.2 1 0 0.4 1 0 0.6 1 0 0.8 1 0 0.2 0 0 0.4 0 0 0.6 0 0 0.8 0 0 0.158081 0.488138 0 0.826795 0.5 0 0.490332 0.162755 0 0.490332 0.837245 0 0.830646 0.300847 0 0.670581 0.39644 0 0.672771 0.603108 0 0.480385 0.5 0 0.830378 0.699529 0 0.148263 0.300078 0 0.191601 0.68192 0 0.685866 0.817766 0 0.683861 0.1881 0 0.30619 0.838031 0 0.294343 0.19126 0 0.400477 0.335791 0 0.38953 0.679566 0 0.326795 0.530452 0 0.85359 0.14641 0 0.14641 0.14641 0 0.14641 0.85359 0 0.85359 0.85359 0 0.541877 0.31025 0 0.541877 0.68975 0 0.272758 0.390768 0 </DataArray>
</Points>
<PointData Scalars="solution">
<DataArray type="Float64" Name="solution" format="ascii">
0
0
0
0
-6.77018e-18
0
0
0
0
0
0
0
0
0
0
0
0
0
0
3.43961e-18
0.0331014
0.0357573
0.0338592
0.0339865
0.0295844
0.0528645
0.0527464
0.062888
0.0296015
0.0263651
0.0340864
0.032525
0.0333787
0.0288935
0.0325157
0.0534006
0.0518214
0.0548546
0.0150916
0.0150121
0.0150791
0.0150828
0.0524189
0.0524847
0.0465165
</DataArray>
</PointData>
<Cells>
<DataArray type="Int32" Name="connectivity" format="ascii">
25 32 24 
28 31 26 
30 37 36 
30 36 33 
25 42 32 
31 43 26 
34 44 29 
35 44 34 
20 37 30 
6 20 5 
6 29 20 
7 29 6 
21 28 26 
26 27 25 
20 30 5 
10 24 11 
21 26 25 
9 21 10 
13 23 14 
18 22 17 
5 30 4 
9 28 21 
21 24 10 
21 25 24 
8 28 9 
14 31 15 
19 32 18 
12 33 13 
17 34 16 
13 33 23 
18 32 22 
23 31 14 
22 34 17 
11 38 3 
3 38 19 
0 39 7 
16 39 0 
15 41 2 
2 41 8 
1 40 12 
4 40 1 
27 37 35 
22 35 34 
33 36 23 
27 42 25 
26 43 27 
37 44 35 
32 42 22 
23 43 31 
35 42 27 
27 43 36 
31 41 15 
19 38 32 
12 40 33 
34 39 16 
24 38 11 
7 39 29 
30 40 4 
8 41 28 
29 44 20 
28 41 31 
33 40 30 
32 38 24 
29 39 34 
36 37 27 
22 42 35 
36 43 23 
20 44 37 
</DataArray>
<DataArray type="Int32" Name="offsets" format="ascii">
3
6
9
12
15
18
21
24
27
30
33
36
39
42
45
48
51
54
57
60
63
66
69
72
75
78
81
84
87
90
93
96
99
102
105
108
111
114
117
120
123
126
129
132
135
138
141
144
147
150
153
156
159
162
165
168
171
174
177
180
183
186
189
192
195
198
201
204
</DataArray>
<DataArray type="UInt8" Name="types" format="ascii">
5
5
5
5
5
5
5
5
5
5
5
5
5
5
5
5
5
5
5
5
5
5
5
5
5
5
5
5
5
5
5
5
5
5
5
5
5
5
5
5
5
5
5
5
5
5
5
5
5
5
5
5
5
5
5
5
5
5
5
5
5
5
5
5
5
5
5
5
</DataArray>
</Cells>
</Piece>
</UnstructuredGrid>
</VTKFile>
