<VTKFile type="UnstructuredGrid" version="0.1" byte_order="LittleEndian">
<UnstructuredGrid>
<Piece NumberOfPoints="216" NumberOfCells="750">
<Points>
<DataArray type="Float64" NumberOfComponents="3" format="ascii">
0 0 0 0 1 0 1 1 0 1 0 0 0 1 1 0 0 1 1 0 1 1 1 1 0 0.8 0 0 0.6 0 0 0.4 0 0 0.2 0 1 0.8 0 1 0.6 0 1 0.4 0 1 0.2 0 0.2 1 0 0.4 1 0 0.6 1 0 0.8 1 0 0.2 0 0 0.4 0 0 0.6 0 0 0.8 0 0 0 0.8 1 0 0.6 1 0 0.4 1 0 0.2 1 0.2 0 1 0.4 0 1 0.6 0 1 0.8 0 1 1 0.2 1 1 0.4 1 1 0.6 1 1 0.8 1 0.8 1 1 0.6 1 1 0.4 1 1 0.2 1 1 0 1 0.2 0 1 0.4 0 1 0.6 0 1 0.8 0 0 0.2 0 0 0.4 0 0 0.6 0 0 0.8 1 0 0.2 1 0 0.4 1 0 0.6 1 0 0.8 1 1 0.2 1 1 0.4 1 1 0.6 1 1 0.8 0.2 0.8 0 0.4 0.8 0 0.6 0.8 0 0.8 0.8 0 0.2 0.6 0 0.4 0.6 0 0.6 0.6 0 0.8 0.6 0 0.2 0.4 0 0.4 0.4 0 0.6 0.4 0 0.8 0.4 0 0.2 0.2 0 0.4 0.2 0 0.6 0.2 0 0.8 0.2 0 0 0.8 0.2 0 0.8 0.4 0 0.8 0.6 0 0.8 0.8 0 0.6 0.2 0 0.6 0.4 0 0.6 0.6 0 0.6 0.8 0 0.4 0.2 0 0.4 0.4 0 0.4 0.6 0 0.4 0.8 0 0.2 0.2 0 0.2 0.4 0 0.2 0.6 0 0.2 0.8 0.2 0 0.2 0.2 0 0.4 0.2 0 0.6 0.2 0 0.8 0.4 0 0.2 0.4 0 0.4 0.4 0 0.6 0.4 0 0.8 0.6 0 0.2 0.6 0 0.4 0.6 0 0.6 0.6 0 0.8 0.8 0 0.2 0.8 0 0.4 0.8 0 0.6 0.8 0 0.8 1 0.8 0.2 1 0.8 0.4 1 0.8 0.6 1 0.8 0.8 1 0.6 0.2 1 0.6 0.4 1 0.6 0.6 1 0.6 0.8 1 0.4 0.2 1 0.4 0.4 1 0.4 0.6 1 0.4 0.8 1 0.2 0.2 1 0.2 0.4 1 0.2 0.6 1 0.2 0.8 0.2 1 0.2 0.2 1 0.4 0.2 1 0.6 0.2 1 0.8 0.4 1 0.2 0.4 1 0.4 0.4 1 0.6 0.4 1 0.8 0.6 1 0.2 0.6 1 0.4 0.6 1 0.6 0.6 1 0.8 0.8 1 0.2 0.8 1 0.4 0.8 1 0.6 0.8 1 0.8 0.2 0.8 1 0.4 0.8 1 0.6 0.8 1 0.8 0.8 1 0.2 0.6 1 0.4 0.6 1 0.6 0.6 1 0.8 0.6 1 0.2 0.4 1 0.4 0.4 1 0.6 0.4 1 0.8 0.4 1 0.2 0.2 1 0.4 0.2 1 0.6 0.2 1 0.8 0.2 1 0.2 0.8 0.2 0.2 0.8 0.4 0.2 0.8 0.6 0.2 0.8 0.8 0.4 0.8 0.2 0.4 0.8 0.4 0.4 0.8 0.6 0.4 0.8 0.8 0.6 0.8 0.2 0.6 0.8 0.4 0.6 0.8 0.6 0.6 0.8 0.8 0.8 0.8 0.2 0.8 0.8 0.4 0.8 0.8 0.6 0.8 0.8 0.8 0.2 0.6 0.2 0.2 0.6 0.4 0.2 0.6 0.6 0.2 0.6 0.8 0.4 0.6 0.2 0.4 0.6 0.4 0.4 0.6 0.6 0.4 0.6 0.8 0.6 0.6 0.2 0.6 0.6 0.4 0.6 0.6 0.6 0.6 0.6 0.8 0.8 0.6 0.2 0.8 0.6 0.4 0.8 0.6 0.6 0.8 0.6 0.8 0.2 0.4 0.2 0.2 0.4 0.4 0.2 0.4 0.6 0.2 0.4 0.8 0.4 0.4 0.2 0.4 0.4 0.4 0.4 0.4 0.6 0.4 0.4 0.8 0.6 0.4 0.2 0.6 0.4 0.4 0.6 0.4 0.6 0.6 0.4 0.8 0.8 0.4 0.2 0.8 0.4 0.4 0.8 0.4 0.6 0.8 0.4 0.8 0.2 0.2 0.2 0.2 0.2 0.4 0.2 0.2 0.6 0.2 0.2 0.8 0.4 0.2 0.2 0.4 0.2 0.4 0.4 0.2 0.6 0.4 0.2 0.8 0.6 0.2 0.2 0.6 0.2 0.4 0.6 0.2 0.6 0.6 0.2 0.8 0.8 0.2 0.2 0.8 0.2 0.4 0.8 0.2 0.6 0.8 0.2 0.8 </DataArray>
</Points>
<PointData Scalars="solution">
<DataArray type="Float64" Name="solution" format="ascii">
0
0
0
0
0.00666667
0.00333333
0.00666667
0.00333333
0
0
0
0
0
0
0
0
0
0
0
0
0
0
0
0
0.01
0.01
0.01
0.01
0.01
0.01
0.01
0.01
0.01
0.01
0.01
0.01
0.01
0.01
0.01
0.01
0
0
0
0
0
0
0
0
0
0
0
0
0
0
0
0
0
0
0
0
0
0
0
0
0
0
0
0
0
0
0
0
0
0
0
0
0
0
0
0
0
0
0
0
0
0
0
0
0
0
0
0
0
0
0
0
0
0
0
0
0
0
0
0
0
0
0
0
0
0
0
0
0
0
0
0
0
0
0
0
0
0
0
0
0
0
0
0
0
0
0
0
0
0
0
0
0.0302916
0.0322394
0.0325436
0.032364
0.0291097
0.0309693
0.0312529
0.0311177
0.0290064
0.0309879
0.0312897
0.0312585
0.0302044
0.0322377
0.0325205
0.0316878
0.00544945
0.00679148
0.00716687
0.00940192
0.00638421
0.00800622
0.0084896
0.0107892
0.00632609
0.00796541
0.00840194
0.0109303
0.00506003
0.00662644
0.00688615
0.00840465
0.00596464
0.00714953
0.00757488
0.00986823
0.00653493
0.00818055
0.00874845
0.0110387
0.00643723
0.00811484
0.00868107
0.011181
0.00528848
0.00689054
0.0072679
0.00908888
0.00593209
0.00714072
0.00757953
0.00984674
0.00650727
0.00818348
0.00874399
0.011042
0.00643478
0.00811601
0.0086725
0.0111554
0.00529361
0.00689452
0.00726002
0.00893681
0.00573453
0.00686054
0.00719345
0.00947707
0.00641994
0.00804593
0.00848583
0.0107836
0.00632872
0.00798371
0.00845361
0.0108156
0.00508326
0.00664654
0.006984
0.00880985
</DataArray>
</PointData>
<Cells>
<DataArray type="Int32" Name="connectivity" format="ascii">
1 8 56 152 
72 40 152 8 
8 40 152 1 
40 72 152 153 
73 41 153 72 
72 41 153 40 
41 73 153 154 
74 42 154 73 
73 42 154 41 
42 74 154 155 
75 43 155 74 
74 43 155 42 
43 75 155 136 
24 4 136 75 
75 4 136 43 
1 56 16 120 
152 40 120 1 
56 1 152 120 
40 152 120 121 
153 41 121 40 
152 40 153 121 
41 153 121 122 
154 42 122 41 
153 41 154 122 
42 154 122 123 
155 43 123 42 
154 42 155 123 
43 155 123 39 
136 4 39 43 
155 43 136 39 
16 56 57 156 
152 120 156 56 
56 120 156 16 
120 152 156 157 
153 121 157 152 
152 121 157 120 
121 153 157 158 
154 122 158 153 
153 122 158 121 
122 154 158 159 
155 123 159 154 
154 123 159 122 
123 155 159 137 
136 39 137 155 
155 39 137 123 
16 57 17 124 
156 120 124 16 
57 16 156 124 
120 156 124 125 
157 121 125 120 
156 120 157 125 
121 157 125 126 
158 122 126 121 
157 121 158 126 
122 158 126 127 
159 123 127 122 
158 122 159 127 
123 159 127 38 
137 39 38 123 
159 123 137 38 
17 57 58 160 
156 124 160 57 
57 124 160 17 
124 156 160 161 
157 125 161 156 
156 125 161 124 
125 157 161 162 
158 126 162 157 
157 126 162 125 
126 158 162 163 
159 127 163 158 
158 127 163 126 
127 159 163 138 
137 38 138 159 
159 38 138 127 
17 58 18 128 
160 124 128 17 
58 17 160 128 
124 160 128 129 
161 125 129 124 
160 124 161 129 
125 161 129 130 
162 126 130 125 
161 125 162 130 
126 162 130 131 
163 127 131 126 
162 126 163 131 
127 163 131 37 
138 38 37 127 
163 127 138 37 
18 58 59 164 
160 128 164 58 
58 128 164 18 
128 160 164 165 
161 129 165 160 
160 129 165 128 
129 161 165 166 
162 130 166 161 
161 130 166 129 
130 162 166 167 
163 131 167 162 
162 131 167 130 
131 163 167 139 
138 37 139 163 
163 37 139 131 
18 59 19 132 
164 128 132 18 
59 18 164 132 
128 164 132 133 
165 129 133 128 
164 128 165 133 
129 165 133 134 
166 130 134 129 
165 129 166 134 
130 166 134 135 
167 131 135 130 
166 130 167 135 
131 167 135 36 
139 37 36 131 
167 131 139 36 
19 59 12 104 
164 132 104 59 
59 132 104 19 
132 164 104 105 
165 133 105 164 
164 133 105 132 
133 165 105 106 
166 134 106 165 
165 134 106 133 
134 166 106 107 
167 135 107 166 
166 135 107 134 
135 167 107 35 
139 36 35 167 
167 36 35 135 
19 12 2 52 
104 132 52 19 
12 19 104 52 
132 104 52 53 
105 133 53 132 
104 132 105 53 
133 105 53 54 
106 134 54 133 
105 133 106 54 
134 106 54 55 
107 135 55 134 
106 134 107 55 
135 107 55 7 
35 36 7 135 
107 135 35 7 
8 9 60 168 
76 72 168 9 
9 72 168 8 
72 76 168 169 
77 73 169 76 
76 73 169 72 
73 77 169 170 
78 74 170 77 
77 74 170 73 
74 78 170 171 
79 75 171 78 
78 75 171 74 
75 79 171 140 
25 24 140 79 
79 24 140 75 
8 60 56 152 
168 72 152 8 
60 8 168 152 
72 168 152 153 
169 73 153 72 
168 72 169 153 
73 169 153 154 
170 74 154 73 
169 73 170 154 
74 170 154 155 
171 75 155 74 
170 74 171 155 
75 171 155 136 
140 24 136 75 
171 75 140 136 
56 60 61 172 
168 152 172 60 
60 152 172 56 
152 168 172 173 
169 153 173 168 
168 153 173 152 
153 169 173 174 
170 154 174 169 
169 154 174 153 
154 170 174 175 
171 155 175 170 
170 155 175 154 
155 171 175 141 
140 136 141 171 
171 136 141 155 
56 61 57 156 
172 152 156 56 
61 56 172 156 
152 172 156 157 
173 153 157 152 
172 152 173 157 
153 173 157 158 
174 154 158 153 
173 153 174 158 
154 174 158 159 
175 155 159 154 
174 154 175 159 
155 175 159 137 
141 136 137 155 
175 155 141 137 
57 61 62 176 
172 156 176 61 
61 156 176 57 
156 172 176 177 
173 157 177 172 
172 157 177 156 
157 173 177 178 
174 158 178 173 
173 158 178 157 
158 174 178 179 
175 159 179 174 
174 159 179 158 
159 175 179 142 
141 137 142 175 
175 137 142 159 
57 62 58 160 
176 156 160 57 
62 57 176 160 
156 176 160 161 
177 157 161 156 
176 156 177 161 
157 177 161 162 
178 158 162 157 
177 157 178 162 
158 178 162 163 
179 159 163 158 
178 158 179 163 
159 179 163 138 
142 137 138 159 
179 159 142 138 
58 62 63 180 
176 160 180 62 
62 160 180 58 
160 176 180 181 
177 161 181 176 
176 161 181 160 
161 177 181 182 
178 162 182 177 
177 162 182 161 
162 178 182 183 
179 163 183 178 
178 163 183 162 
163 179 183 143 
142 138 143 179 
179 138 143 163 
58 63 59 164 
180 160 164 58 
63 58 180 164 
160 180 164 165 
181 161 165 160 
180 160 181 165 
161 181 165 166 
182 162 166 161 
181 161 182 166 
162 182 166 167 
183 163 167 162 
182 162 183 167 
163 183 167 139 
143 138 139 163 
183 163 143 139 
59 63 13 108 
180 164 108 63 
63 164 108 59 
164 180 108 109 
181 165 109 180 
180 165 109 164 
165 181 109 110 
182 166 110 181 
181 166 110 165 
166 182 110 111 
183 167 111 182 
182 167 111 166 
167 183 111 34 
143 139 34 183 
183 139 34 167 
59 13 12 104 
108 164 104 59 
13 59 108 104 
164 108 104 105 
109 165 105 164 
108 164 109 105 
165 109 105 106 
110 166 106 165 
109 165 110 106 
166 110 106 107 
111 167 107 166 
110 166 111 107 
167 111 107 35 
34 139 35 167 
111 167 34 35 
9 10 64 184 
80 76 184 10 
10 76 184 9 
76 80 184 185 
81 77 185 80 
80 77 185 76 
77 81 185 186 
82 78 186 81 
81 78 186 77 
78 82 186 187 
83 79 187 82 
82 79 187 78 
79 83 187 144 
26 25 144 83 
83 25 144 79 
9 64 60 168 
184 76 168 9 
64 9 184 168 
76 184 168 169 
185 77 169 76 
184 76 185 169 
77 185 169 170 
186 78 170 77 
185 77 186 170 
78 186 170 171 
187 79 171 78 
186 78 187 171 
79 187 171 140 
144 25 140 79 
187 79 144 140 
60 64 65 188 
184 168 188 64 
64 168 188 60 
168 184 188 189 
185 169 189 184 
184 169 189 168 
169 185 189 190 
186 170 190 185 
185 170 190 169 
170 186 190 191 
187 171 191 186 
186 171 191 170 
171 187 191 145 
144 140 145 187 
187 140 145 171 
60 65 61 172 
188 168 172 60 
65 60 188 172 
168 188 172 173 
189 169 173 168 
188 168 189 173 
169 189 173 174 
190 170 174 169 
189 169 190 174 
170 190 174 175 
191 171 175 170 
190 170 191 175 
171 191 175 141 
145 140 141 171 
191 171 145 141 
61 65 66 192 
188 172 192 65 
65 172 192 61 
172 188 192 193 
189 173 193 188 
188 173 193 172 
173 189 193 194 
190 174 194 189 
189 174 194 173 
174 190 194 195 
191 175 195 190 
190 175 195 174 
175 191 195 146 
145 141 146 191 
191 141 146 175 
61 66 62 176 
192 172 176 61 
66 61 192 176 
172 192 176 177 
193 173 177 172 
192 172 193 177 
173 193 177 178 
194 174 178 173 
193 173 194 178 
174 194 178 179 
195 175 179 174 
194 174 195 179 
175 195 179 142 
146 141 142 175 
195 175 146 142 
62 66 67 196 
192 176 196 66 
66 176 196 62 
176 192 196 197 
193 177 197 192 
192 177 197 176 
177 193 197 198 
194 178 198 193 
193 178 198 177 
178 194 198 199 
195 179 199 194 
194 179 199 178 
179 195 199 147 
146 142 147 195 
195 142 147 179 
62 67 63 180 
196 176 180 62 
67 62 196 180 
176 196 180 181 
197 177 181 176 
196 176 197 181 
177 197 181 182 
198 178 182 177 
197 177 198 182 
178 198 182 183 
199 179 183 178 
198 178 199 183 
179 199 183 143 
147 142 143 179 
199 179 147 143 
63 67 14 112 
196 180 112 67 
67 180 112 63 
180 196 112 113 
197 181 113 196 
196 181 113 180 
181 197 113 114 
198 182 114 197 
197 182 114 181 
182 198 114 115 
199 183 115 198 
198 183 115 182 
183 199 115 33 
147 143 33 199 
199 143 33 183 
63 14 13 108 
112 180 108 63 
14 63 112 108 
180 112 108 109 
113 181 109 180 
112 180 113 109 
181 113 109 110 
114 182 110 181 
113 181 114 110 
182 114 110 111 
115 183 111 182 
114 182 115 111 
183 115 111 34 
33 143 34 183 
115 183 33 34 
10 11 68 200 
84 80 200 11 
11 80 200 10 
80 84 200 201 
85 81 201 84 
84 81 201 80 
81 85 201 202 
86 82 202 85 
85 82 202 81 
82 86 202 203 
87 83 203 86 
86 83 203 82 
83 87 203 148 
27 26 148 87 
87 26 148 83 
10 68 64 184 
200 80 184 10 
68 10 200 184 
80 200 184 185 
201 81 185 80 
200 80 201 185 
81 201 185 186 
202 82 186 81 
201 81 202 186 
82 202 186 187 
203 83 187 82 
202 82 203 187 
83 203 187 144 
148 26 144 83 
203 83 148 144 
64 68 69 204 
200 184 204 68 
68 184 204 64 
184 200 204 205 
201 185 205 200 
200 185 205 184 
185 201 205 206 
202 186 206 201 
201 186 206 185 
186 202 206 207 
203 187 207 202 
202 187 207 186 
187 203 207 149 
148 144 149 203 
203 144 149 187 
64 69 65 188 
204 184 188 64 
69 64 204 188 
184 204 188 189 
205 185 189 184 
204 184 205 189 
185 205 189 190 
206 186 190 185 
205 185 206 190 
186 206 190 191 
207 187 191 186 
206 186 207 191 
187 207 191 145 
149 144 145 187 
207 187 149 145 
65 69 70 208 
204 188 208 69 
69 188 208 65 
188 204 208 209 
205 189 209 204 
204 189 209 188 
189 205 209 210 
206 190 210 205 
205 190 210 189 
190 206 210 211 
207 191 211 206 
206 191 211 190 
191 207 211 150 
149 145 150 207 
207 145 150 191 
65 70 66 192 
208 188 192 65 
70 65 208 192 
188 208 192 193 
209 189 193 188 
208 188 209 193 
189 209 193 194 
210 190 194 189 
209 189 210 194 
190 210 194 195 
211 191 195 190 
210 190 211 195 
191 211 195 146 
150 145 146 191 
211 191 150 146 
66 70 71 212 
208 192 212 70 
70 192 212 66 
192 208 212 213 
209 193 213 208 
208 193 213 192 
193 209 213 214 
210 194 214 209 
209 194 214 193 
194 210 214 215 
211 195 215 210 
210 195 215 194 
195 211 215 151 
150 146 151 211 
211 146 151 195 
66 71 67 196 
212 192 196 66 
71 66 212 196 
192 212 196 197 
213 193 197 192 
212 192 213 197 
193 213 197 198 
214 194 198 193 
213 193 214 198 
194 214 198 199 
215 195 199 194 
214 194 215 199 
195 215 199 147 
151 146 147 195 
215 195 151 147 
67 71 15 116 
212 196 116 71 
71 196 116 67 
196 212 116 117 
213 197 117 212 
212 197 117 196 
197 213 117 118 
214 198 118 213 
213 198 118 197 
198 214 118 119 
215 199 119 214 
214 199 119 198 
199 215 119 32 
151 147 32 215 
215 147 32 199 
67 15 14 112 
116 196 112 67 
15 67 116 112 
196 116 112 113 
117 197 113 196 
116 196 117 113 
197 117 113 114 
118 198 114 197 
117 197 118 114 
198 118 114 115 
119 199 115 198 
118 198 119 115 
199 119 115 33 
32 147 33 199 
119 199 32 33 
11 0 20 88 
44 84 88 0 
0 84 88 11 
84 44 88 89 
45 85 89 44 
44 85 89 84 
85 45 89 90 
46 86 90 45 
45 86 90 85 
86 46 90 91 
47 87 91 46 
46 87 91 86 
87 47 91 28 
5 27 28 47 
47 27 28 87 
11 20 68 200 
88 84 200 11 
20 11 88 200 
84 88 200 201 
89 85 201 84 
88 84 89 201 
85 89 201 202 
90 86 202 85 
89 85 90 202 
86 90 202 203 
91 87 203 86 
90 86 91 203 
87 91 203 148 
28 27 148 87 
91 87 28 148 
68 20 21 92 
88 200 92 20 
20 200 92 68 
200 88 92 93 
89 201 93 88 
88 201 93 200 
201 89 93 94 
90 202 94 89 
89 202 94 201 
202 90 94 95 
91 203 95 90 
90 203 95 202 
203 91 95 29 
28 148 29 91 
91 148 29 203 
68 21 69 204 
92 200 204 68 
21 68 92 204 
200 92 204 205 
93 201 205 200 
92 200 93 205 
201 93 205 206 
94 202 206 201 
93 201 94 206 
202 94 206 207 
95 203 207 202 
94 202 95 207 
203 95 207 149 
29 148 149 203 
95 203 29 149 
69 21 22 96 
92 204 96 21 
21 204 96 69 
204 92 96 97 
93 205 97 92 
92 205 97 204 
205 93 97 98 
94 206 98 93 
93 206 98 205 
206 94 98 99 
95 207 99 94 
94 207 99 206 
207 95 99 30 
29 149 30 95 
95 149 30 207 
69 22 70 208 
96 204 208 69 
22 69 96 208 
204 96 208 209 
97 205 209 204 
96 204 97 209 
205 97 209 210 
98 206 210 205 
97 205 98 210 
206 98 210 211 
99 207 211 206 
98 206 99 211 
207 99 211 150 
30 149 150 207 
99 207 30 150 
70 22 23 100 
96 208 100 22 
22 208 100 70 
208 96 100 101 
97 209 101 96 
96 209 101 208 
209 97 101 102 
98 210 102 97 
97 210 102 209 
210 98 102 103 
99 211 103 98 
98 211 103 210 
211 99 103 31 
30 150 31 99 
99 150 31 211 
70 23 71 212 
100 208 212 70 
23 70 100 212 
208 100 212 213 
101 209 213 208 
100 208 101 213 
209 101 213 214 
102 210 214 209 
101 209 102 214 
210 102 214 215 
103 211 215 210 
102 210 103 215 
211 103 215 151 
31 150 151 211 
103 211 31 151 
71 23 3 48 
100 212 48 23 
23 212 48 71 
212 100 48 49 
101 213 49 100 
100 213 49 212 
213 101 49 50 
102 214 50 101 
101 214 50 213 
214 102 50 51 
103 215 51 102 
102 215 51 214 
215 103 51 6 
31 151 6 103 
103 151 6 215 
71 3 15 116 
48 212 116 71 
3 71 48 116 
212 48 116 117 
49 213 117 212 
48 212 49 117 
213 49 117 118 
50 214 118 213 
49 213 50 118 
214 50 118 119 
51 215 119 214 
50 214 51 119 
215 51 119 32 
6 151 32 215 
51 215 6 32 
</DataArray>
<DataArray type="Int32" Name="offsets" format="ascii">
4
8
12
16
20
24
28
32
36
40
44
48
52
56
60
64
68
72
76
80
84
88
92
96
100
104
108
112
116
120
124
128
132
136
140
144
148
152
156
160
164
168
172
176
180
184
188
192
196
200
204
208
212
216
220
224
228
232
236
240
244
248
252
256
260
264
268
272
276
280
284
288
292
296
300
304
308
312
316
320
324
328
332
336
340
344
348
352
356
360
364
368
372
376
380
384
388
392
396
400
404
408
412
416
420
424
428
432
436
440
444
448
452
456
460
464
468
472
476
480
484
488
492
496
500
504
508
512
516
520
524
528
532
536
540
544
548
552
556
560
564
568
572
576
580
584
588
592
596
600
604
608
612
616
620
624
628
632
636
640
644
648
652
656
660
664
668
672
676
680
684
688
692
696
700
704
708
712
716
720
724
728
732
736
740
744
748
752
756
760
764
768
772
776
780
784
788
792
796
800
804
808
812
816
820
824
828
832
836
840
844
848
852
856
860
864
868
872
876
880
884
888
892
896
900
904
908
912
916
920
924
928
932
936
940
944
948
952
956
960
964
968
972
976
980
984
988
992
996
1000
1004
1008
1012
1016
1020
1024
1028
1032
1036
1040
1044
1048
1052
1056
1060
1064
1068
1072
1076
1080
1084
1088
1092
1096
1100
1104
1108
1112
1116
1120
1124
1128
1132
1136
1140
1144
1148
1152
1156
1160
1164
1168
1172
1176
1180
1184
1188
1192
1196
1200
1204
1208
1212
1216
1220
1224
1228
1232
1236
1240
1244
1248
1252
1256
1260
1264
1268
1272
1276
1280
1284
1288
1292
1296
1300
1304
1308
1312
1316
1320
1324
1328
1332
1336
1340
1344
1348
1352
1356
1360
1364
1368
1372
1376
1380
1384
1388
1392
1396
1400
1404
1408
1412
1416
1420
1424
1428
1432
1436
1440
1444
1448
1452
1456
1460
1464
1468
1472
1476
1480
1484
1488
1492
1496
1500
1504
1508
1512
1516
1520
1524
1528
1532
1536
1540
1544
1548
1552
1556
1560
1564
1568
1572
1576
1580
1584
1588
1592
1596
1600
1604
1608
1612
1616
1620
1624
1628
1632
1636
1640
1644
1648
1652
1656
1660
1664
1668
1672
1676
1680
1684
1688
1692
1696
1700
1704
1708
1712
1716
1720
1724
1728
1732
1736
1740
1744
1748
1752
1756
1760
1764
1768
1772
1776
1780
1784
1788
1792
1796
1800
1804
1808
1812
1816
1820
1824
1828
1832
1836
1840
1844
1848
1852
1856
1860
1864
1868
1872
1876
1880
1884
1888
1892
1896
1900
1904
1908
1912
1916
1920
1924
1928
1932
1936
1940
1944
1948
1952
1956
1960
1964
1968
1972
1976
1980
1984
1988
1992
1996
2000
2004
2008
2012
2016
2020
2024
2028
2032
2036
2040
2044
2048
2052
2056
2060
2064
2068
2072
2076
2080
2084
2088
2092
2096
2100
2104
2108
2112
2116
2120
2124
2128
2132
2136
2140
2144
2148
2152
2156
2160
2164
2168
2172
2176
2180
2184
2188
2192
2196
2200
2204
2208
2212
2216
2220
2224
2228
2232
2236
2240
2244
2248
2252
2256
2260
2264
2268
2272
2276
2280
2284
2288
2292
2296
2300
2304
2308
2312
2316
2320
2324
2328
2332
2336
2340
2344
2348
2352
2356
2360
2364
2368
2372
2376
2380
2384
2388
2392
2396
2400
2404
2408
2412
2416
2420
2424
2428
2432
2436
2440
2444
2448
2452
2456
2460
2464
2468
2472
2476
2480
2484
2488
2492
2496
2500
2504
2508
2512
2516
2520
2524
2528
2532
2536
2540
2544
2548
2552
2556
2560
2564
2568
2572
2576
2580
2584
2588
2592
2596
2600
2604
2608
2612
2616
2620
2624
2628
2632
2636
2640
2644
2648
2652
2656
2660
2664
2668
2672
2676
2680
2684
2688
2692
2696
2700
2704
2708
2712
2716
2720
2724
2728
2732
2736
2740
2744
2748
2752
2756
2760
2764
2768
2772
2776
2780
2784
2788
2792
2796
2800
2804
2808
2812
2816
2820
2824
2828
2832
2836
2840
2844
2848
2852
2856
2860
2864
2868
2872
2876
2880
2884
2888
2892
2896
2900
2904
2908
2912
2916
2920
2924
2928
2932
2936
2940
2944
2948
2952
2956
2960
2964
2968
2972
2976
2980
2984
2988
2992
2996
3000
</DataArray>
<DataArray type="UInt8" Name="types" format="ascii">
10
10
10
10
10
10
10
10
10
10
10
10
10
10
10
10
10
10
10
10
10
10
10
10
10
10
10
10
10
10
10
10
10
10
10
10
10
10
10
10
10
10
10
10
10
10
10
10
10
10
10
10
10
10
10
10
10
10
10
10
10
10
10
10
10
10
10
10
10
10
10
10
10
10
10
10
10
10
10
10
10
10
10
10
10
10
10
10
10
10
10
10
10
10
10
10
10
10
10
10
10
10
10
10
10
10
10
10
10
10
10
10
10
10
10
10
10
10
10
10
10
10
10
10
10
10
10
10
10
10
10
10
10
10
10
10
10
10
10
10
10
10
10
10
10
10
10
10
10
10
10
10
10
10
10
10
10
10
10
10
10
10
10
10
10
10
10
10
10
10
10
10
10
10
10
10
10
10
10
10
10
10
10
10
10
10
10
10
10
10
10
10
10
10
10
10
10
10
10
10
10
10
10
10
10
10
10
10
10
10
10
10
10
10
10
10
10
10
10
10
10
10
10
10
10
10
10
10
10
10
10
10
10
10
10
10
10
10
10
10
10
10
10
10
10
10
10
10
10
10
10
10
10
10
10
10
10
10
10
10
10
10
10
10
10
10
10
10
10
10
10
10
10
10
10
10
10
10
10
10
10
10
10
10
10
10
10
10
10
10
10
10
10
10
10
10
10
10
10
10
10
10
10
10
10
10
10
10
10
10
10
10
10
10
10
10
10
10
10
10
10
10
10
10
10
10
10
10
10
10
10
10
10
10
10
10
10
10
10
10
10
10
10
10
10
10
10
10
10
10
10
10
10
10
10
10
10
10
10
10
10
10
10
10
10
10
10
10
10
10
10
10
10
10
10
10
10
10
10
10
10
10
10
10
10
10
10
10
10
10
10
10
10
10
10
10
10
10
10
10
10
10
10
10
10
10
10
10
10
10
10
10
10
10
10
10
10
10
10
10
10
10
10
10
10
10
10
10
10
10
10
10
10
10
10
10
10
10
10
10
10
10
10
10
10
10
10
10
10
10
10
10
10
10
10
10
10
10
10
10
10
10
10
10
10
10
10
10
10
10
10
10
10
10
10
10
10
10
10
10
10
10
10
10
10
10
10
10
10
10
10
10
10
10
10
10
10
10
10
10
10
10
10
10
10
10
10
10
10
10
10
10
10
10
10
10
10
10
10
10
10
10
10
10
10
10
10
10
10
10
10
10
10
10
10
10
10
10
10
10
10
10
10
10
10
10
10
10
10
10
10
10
10
10
10
10
10
10
10
10
10
10
10
10
10
10
10
10
10
10
10
10
10
10
10
10
10
10
10
10
10
10
10
10
10
10
10
10
10
10
10
10
10
10
10
10
10
10
10
10
10
10
10
10
10
10
10
10
10
10
10
10
10
10
10
10
10
10
10
10
10
10
10
10
10
10
10
10
10
10
10
10
10
10
10
10
10
10
10
10
10
10
10
10
10
10
10
10
10
10
10
10
10
10
10
10
10
10
10
10
10
10
10
10
10
10
10
10
10
10
10
10
10
10
10
10
10
10
10
10
10
10
10
10
10
10
10
10
10
10
10
10
10
10
10
10
10
10
10
10
10
10
10
10
10
10
10
10
10
10
10
10
10
10
10
10
10
10
10
10
10
10
10
10
10
10
10
10
10
10
10
10
10
10
10
10
10
10
10
10
10
10
10
10
10
10
10
10
10
10
</DataArray>
</Cells>
</Piece>
</UnstructuredGrid>
</VTKFile>
